Material composition,GGA Band gap (eV),Stability (meV/atom),Formation energy (eV/atom)
Pb1H9C4F3,3.937,222.819,-0.267
H6C1Ba1Br3N1,4.318,92.831,-0.460
H6C1Cl3Ba1N1,4.985,98.911,-0.542
H6C1F3Ba1N1,5.579,160.718,-0.973
I3H6C1Ba1N1,3.801,87.721,-0.338
Be1C1N1Br3H6,4.515,77.302,-0.182
Be1C1N1Cl3H6,5.321,67.936,-0.292
Be1C1N1F3H6,6.502,132.327,-0.852
I3Be1C1N1H6,3.818,101.660,-0.039
H6Ca1C1Br3N1,4.513,79.116,-0.431
H6Ca1Cl3C1N1,5.280,80.833,-0.520
H6Ca1F3C1N1,6.415,171.712,-0.979
I3H6Ca1C1N1,3.662,88.491,-0.300
H6C1N1Br3Cd1,1.501,103.332,-0.116
H6C1N1Cl3Cd1,2.424,104.421,-0.175
H6C1N1F3Cd1,3.431,159.120,-0.555
I3H6C1N1Cd1,0.509,114.408,-0.010
H6C1Co1Br3N1,2.173,24.701,-0.044
H6C1Cl3Co1N1,2.584,10.863,-0.125
H6C1F3Co1N1,2.931,167.289,-0.519
I3H6C1Co1N1,1.556,75.489,0.062
H6C1Br3Cu1N1,0.046,123.045,0.049
H6C1Cl3Cu1N1,0.007,113.805,-0.010
H6C1F3Cu1N1,0.532,255.823,-0.377
I3H6C1Cu1N1,0.126,173.707,0.152
H6C1Fe1Br3N1,2.313,33.668,-0.073
H6C1Cl3Fe1N1,3.256,24.144,-0.156
H6C1F3Fe1N1,3.206,183.187,-0.590
I3H6C1Fe1N1,1.047,57.618,0.044
H6Ge1C1Br3N1,1.908,66.829,-0.074
H6Ge1Cl3C1N1,2.340,56.572,-0.138
H6Ge1F3C1N1,4.469,89.585,-0.601
I3H6Ge1C1N1,1.561,82.300,0.020
H6Mg1Cl3C1N1,4.828,91.032,-0.375
H6Mg1Cl3C1N1,4.828,91.038,-0.375
H6Mg1F3C1N1,5.771,184.085,-0.867
I3H6Mg1C1N1,1.210,116.952,-0.126
H6C1Mn1Br3N1,2.191,50.578,-0.150
H6C1Mn1Cl3N1,3.101,43.451,-0.230
H6C1Mn1F3N1,3.613,172.253,-0.663
I3H6C1Mn1N1,0.816,67.493,-0.023
Ni1C1N1Br3H6,1.955,157.092,0.070
Ni1C1N1Cl3H6,2.489,138.925,-0.007
Ni1C1N1F3H6,4.139,217.144,-0.415
I3Ni1C1N1H6,1.269,191.856,0.178
H6C1Sn1Br3N1,1.464,73.135,-0.119
H6C1Cl3Sn1N1,2.013,69.800,-0.180
H6C1F3Sn1N1,3.562,126.862,-0.609
I3H6C1Sn1N1,,75.750,-0.024
Sr1C1N1Br3H6,4.446,80.720,-0.455
Sr1C1N1Cl3H6,5.190,81.513,-0.542
Sr1C1N1F3H6,6.235,163.032,-0.989
I3Sr1C1N1H6,3.875,78.952,-0.326
H6Zn1C1Br3N1,3.171,87.476,-0.137
H6Zn1Cl3C1N1,3.913,89.979,-0.204
H6Zn1F3C1N1,4.434,162.169,-0.581
I3H6Zn1C1N1,2.389,95.024,-0.036
Pb1H6C1I3N1,1.837,90.614,-0.055
Pb1H6C1I3N1,1.838,90.322,-0.055
Pb1H6C1Br3N1,2.252,78.409,-0.152
Pb1H6C1Cl3N1,2.730,77.340,-0.213
Pb1H6C1F3N1,3.756,145.675,-0.620
H10C3Ba1Br3N1,4.358,119.221,-0.250
H10C3Cl3Ba1N1,4.882,129.620,-0.298
H10C3F3Ba1N1,5.471,181.879,-0.574
I3H10C3Ba1N1,3.752,109.818,-0.174
Be1C3N1Br3H10,4.460,105.539,-0.067
Be1C3N1Cl3H10,5.178,98.344,-0.141
Be1C3N1F3H10,6.356,145.574,-0.511
I3Be1C3N1H10,3.900,120.217,0.026
H10Ca1C3Br3N1,3.892,145.004,-0.195
H10Ca1Cl3C3N1,4.499,139.648,-0.261
H10Ca1F3C3N1,5.217,206.072,-0.561
I3H10Ca1C3N1,3.271,136.717,-0.122
H10C3N1Br3Cd1,3.229,131.371,-0.015
H10C3N1Cl3Cd1,3.767,138.736,-0.048
H10C3N1F3Cd1,3.875,204.628,-0.272
I3H10C3N1Cd1,2.698,119.462,0.037
H10C3Co1Br3N1,2.207,89.551,0.044
H10C3Cl3Co1N1,2.541,85.124,-0.005
H10C3F3Co1N1,1.068,621.330,0.164
I3H10C3Co1N1,1.702,119.564,0.110
H10C3Br3Cu1N1,0.407,136.985,0.087
H10C3Cl3Cu1N1,0.533,133.463,0.051
H10C3F3Cu1N1,0.883,239.013,-0.183
I3H10C3Cu1N1,0.001,151.919,0.138
H10C3Fe1Br3N1,3.755,75.760,0.005
H10C3Cl3Fe1N1,4.140,70.135,-0.050
H10C3F3Fe1N1,3.719,188.589,-0.327
I3H10C3Fe1N1,3.034,84.641,0.075
H10Ge1C3Br3N1,3.006,100.225,0.006
H10Ge1Cl3C3N1,3.626,91.656,-0.038
H10Ge1F3C3N1,4.551,125.446,-0.335
I3H10Ge1C3N1,2.237,114.010,0.072
H10Mg1Cl3C3N1,4.648,145.894,-0.165
H10Mg1F3C3N1,5.346,217.374,-0.484
I3H10Mg1C3N1,3.347,133.237,-0.029
H10C3Mn1Br3N1,3.524,102.221,-0.032
H10C3Mn1Cl3N1,3.856,101.232,-0.081
H10C3Mn1F3N1,3.694,205.332,-0.352
I3H10C3Mn1N1,3.073,99.585,0.039
Ni1C3N1Br3H10,2.434,171.443,0.113
Ni1C3N1Cl3H10,2.944,162.770,0.065
Ni1C3N1F3H10,4.154,222.357,-0.199
I3Ni1C3N1H10,1.768,189.871,0.181
H10C3Sn1Br3N1,2.774,106.778,-0.021
H10C3Cl3Sn1N1,3.324,103.115,-0.064
H10C3F3Sn1N1,4.223,148.413,-0.342
I3H10C3Sn1N1,2.026,108.540,0.042
Sr1C3N1Br3H10,4.221,127.020,-0.230
Sr1C3N1Cl3H10,4.718,139.980,-0.276
Sr1C3N1F3H10,5.198,202.388,-0.566
I3Sr1C3N1H10,3.623,115.393,-0.155
H10Zn1C3Br3N1,3.793,120.670,-0.029
H10Zn1Cl3C3N1,4.424,124.774,-0.071
H10Zn1F3C3N1,4.726,176.998,-0.318
I3H10Zn1C3N1,3.229,119.912,0.033
Pb1I3C3H10N1,2.145,123.516,0.027
Pb1H10C3Br3N1,2.868,118.926,-0.035
Pb1H10C3N1Cl3,3.611,118.981,-0.075
Pb1H10C3N1F3,4.483,168.100,-0.342
H7C3Ba1Br3,1.332,224.591,-0.205
H7C3Ba1Cl3,1.753,225.849,-0.266
H7C3Ba1F3,4.610,310.933,-0.625
I3H7C3Ba1,0.902,242.981,-0.110
Be1C3Br3H7,1.691,209.510,0.032
Be1C3Cl3H7,2.192,195.865,-0.055
Be1C3F3H7,3.749,262.116,-0.519
I3Be1C3H7,1.082,238.617,0.146
H7Ca1C3Br3,1.681,236.647,-0.155
H7Ca1C3Cl3,4.022,172.901,-0.285
H7Ca1C3F3,5.660,239.865,-0.685
I3H7Ca1C3,1.116,258.796,-0.062
H7C3Br3Cd1,1.644,224.594,0.082
H7C3Cl3Cd1,2.167,219.915,0.042
H7C3F3Cd1,2.903,283.088,-0.268
I3H7C3Cd1,2.046,194.862,0.100
H7C3Co1Br3,1.514,184.995,0.171
H7C3Co1Cl3,1.395,148.539,0.090
H7C3Co1F3,1.782,318.457,-0.209
I3H7C3Co1,1.115,249.121,0.249
H7C3Br3Cu1,0.008,248.615,0.230
H7C3Cu1Cl3,0.424,237.718,0.189
H7C3Cu1F3,0.617,299.177,-0.129
I3H7C3Cu1,0.003,238.750,0.233
H7C3Fe1Br3,1.492,159.261,0.113
H7C3Fe1Cl3,1.535,174.330,0.063
H7C3Fe1F3,3.590,282.088,-0.319
I3H7C3Fe1,1.040,209.449,0.209
H7Ge1C3Br3,0.685,232.774,0.129
H7Ge1C3Cl3,0.723,233.528,0.076
H7Ge1C3F3,0.912,252.013,-0.302
I3H7Ge1C3,0.652,245.427,0.204
H7Mg1C3Cl3,2.029,221.866,-0.121
H7Mg1C3Cl3,2.029,221.867,-0.121
H7Mg1C3F3,4.155,296.299,-0.544
I3H7Mg1C3,1.316,249.889,0.054
H7C3Mn1Br3,1.363,180.934,0.054
H7C3Mn1Cl3,1.514,170.377,-0.006
H7C3Mn1F3,3.615,284.213,-0.371
I3H7C3Mn1,0.972,206.288,0.141
Ni1C3Br3H7,1.674,292.770,0.263
Ni1C3Cl3H7,2.057,273.559,0.205
Ni1C3F3H7,3.485,307.277,-0.164
I3Ni1C3H7,1.128,343.322,0.343
H7C3Sn1Br3,0.358,228.600,0.093
H7C3Sn1Cl3,0.507,227.006,0.045
H7C3Sn1F3,0.659,294.759,-0.306
I3H7C3Sn1,0.002,240.426,0.167
Sr1C3Br3H7,1.498,224.136,-0.190
Sr1C3Cl3H7,1.952,225.469,-0.252
Sr1C3F3H7,5.362,230.023,-0.696
I3Sr1C3H7,0.994,242.927,-0.092
H7Zn1C3Br3,1.744,226.182,0.079
H7Zn1C3Cl3,2.007,220.834,0.032
H7Zn1C3F3,3.487,272.345,-0.304
I3H7Zn1C3,1.145,253.332,0.153
Pb1I3C3H7,0.960,255.524,0.143
Pb1H7C3Br3,1.076,221.425,0.069
Pb1H7C3Cl3,1.221,215.296,0.023
Pb1H7C3F3,1.361,288.491,-0.306
H8C2Ba1Br3N1,4.414,133.794,-0.309
H8C2Cl3Ba1N1,5.030,146.071,-0.367
H8C2F3Ba1N1,5.298,211.274,-0.696
I3H8C2Ba1N1,3.883,125.898,-0.215
Be1C2N1Br3H8,4.438,119.158,-0.088
Be1C2N1Cl3H8,5.163,111.818,-0.176
Be1C2N1F3H8,6.291,174.121,-0.613
I3Be1C2N1H8,3.836,134.977,0.022
H8Ca1C2Br3N1,4.323,141.320,-0.267
H8Ca1Cl3C2N1,4.836,134.399,-0.346
H8Ca1F3C2N1,5.492,204.872,-0.715
I3H8Ca1C2N1,3.635,138.594,-0.172
H8C2N1Br3Cd1,1.160,143.307,-0.032
H8C2N1Cl3Cd1,2.014,147.995,-0.076
H8C2N1F3Cd1,3.413,197.096,-0.375
I3H8C2N1Cd1,0.635,136.926,0.037
H8C2Co1Br3N1,2.102,99.135,0.044
H8C2Cl3Co1N1,2.394,94.620,-0.014
H8C2F3Co1N1,2.912,224.921,-0.324
I3H8C2Co1N1,1.448,134.952,0.124
H8C2Br3Cu1N1,0.352,159.483,0.100
H8C2Cl3Cu1N1,0.493,154.635,0.055
H8C2F3Cu1N1,0.314,270.528,-0.235
I3H8C2Cu1N1,0.171,168.088,0.151
H8C2Fe1Br3N1,3.549,82.804,-0.003
H8C2Cl3Fe1N1,3.974,80.148,-0.064
H8C2F3Fe1N1,4.127,367.194,-0.251
I3H8C2Fe1N1,2.385,96.917,0.086
H8Ge1C2Br3N1,2.623,112.491,0.000
H8Ge1Cl3C2N1,3.316,99.348,-0.057
H8Ge1F3C2N1,4.100,137.434,-0.415
I3H8Ge1C2N1,2.003,124.604,0.075
H8Mg1Cl3C2N1,4.258,144.982,-0.228
H8Mg1F3C2N1,4.965,230.083,-0.611
I3H8Mg1C2N1,1.406,143.303,-0.051
H8C2Mn1Br3N1,2.344,104.116,-0.056
H8C2Mn1Cl3N1,3.513,96.341,-0.122
H8C2Mn1F3N1,2.885,207.878,-0.461
I3H8C2Mn1N1,1.040,103.592,0.031
Ni1C2N1Br3H8,1.775,234.070,0.164
Ni1C2N1Cl3H8,2.843,186.374,0.069
Ni1C2N1F3H8,3.978,239.724,-0.266
I3Ni1C2N1H8,1.461,219.197,0.208
H8C2Sn1Br3N1,2.173,121.124,-0.032
H8C2Cl3Sn1N1,2.784,117.138,-0.083
H8C2F3Sn1N1,3.754,160.222,-0.429
I3H8C2Sn1N1,1.541,121.881,0.042
Sr1C2N1Br3H8,4.432,133.703,-0.295
Sr1C2N1Cl3H8,5.145,141.563,-0.357
Sr1C2N1F3H8,5.419,206.995,-0.715
I3Sr1C2N1H8,3.868,124.579,-0.199
H8Zn1C2Br3N1,3.588,136.793,-0.043
H8Zn1Cl3C2N1,4.327,141.018,-0.094
H8Zn1F3C2N1,4.464,198.264,-0.396
I3H8Zn1C2N1,2.938,135.517,0.031
Pb1I3C2H8N1,1.890,136.085,0.020
Pb1H8C2Br3N1,2.469,126.302,-0.058
Pb1H8C2N1Cl3,2.933,128.084,-0.105
Pb1H8C2N1F3,3.407,187.944,-0.424
H9C4Ba1Br3,1.900,191.913,-0.162
H9C4Ba1Cl3,2.342,195.783,-0.210
H9C4Ba1F3,4.112,277.740,-0.493
I3H9C4Ba1,1.332,206.002,-0.085
Be1C4Br3H9,1.360,180.973,0.035
Be1C4Cl3H9,1.809,168.886,-0.038
Be1C4F3H9,3.245,215.212,-0.428
I3Be1C4H9,0.917,204.689,0.128
H9Ca1C4Br3,1.820,208.474,-0.114
H9Ca1C4Cl3,2.252,207.620,-0.170
H9Ca1C4F3,3.124,269.172,-0.492
I3H9Ca1C4,1.386,228.343,-0.036
H9C4Br3Cd1,1.560,207.527,0.090
H9C4Cl3Cd1,2.031,202.394,0.056
H9C4F3Cd1,3.100,254.137,-0.200
I3H9C4Cd1,1.054,219.138,0.141
H9C4Co1Br3,1.415,162.893,0.151
H9C4Co1Cl3,1.505,151.076,0.103
H9C4Co1F3,1.238,242.128,-0.192
I3H9C4Co1,0.989,217.733,0.218
H9C4Br3Cu1,0.408,212.558,0.197
H9C4Cu1Cl3,0.531,201.123,0.161
H9C4Cu1F3,0.002,255.471,-0.097
I3H9C4Cu1,0.003,250.586,0.245
H9C4Fe1Br3,1.603,147.902,0.110
H9C4Fe1Cl3,1.561,149.027,0.058
H9C4Fe1F3,0.615,306.168,-0.189
I3H9C4Fe1,1.063,181.821,0.182
H9Ge1C4Br3,1.010,196.451,0.111
H9Ge1C4Cl3,1.062,196.409,0.066
H9Ge1C4F3,1.298,212.719,-0.243
I3H9Ge1C4,0.937,209.140,0.175
H9Mg1C4Cl3,2.037,215.945,-0.066
H9Mg1C4F3,2.973,263.538,-0.428
I3H9Mg1C4,1.104,232.619,0.071
H9C4Mn1Br3,1.420,175.958,0.071
H9C4Mn1Cl3,1.589,167.980,0.022
H9C4Mn1F3,1.653,256.993,-0.282
I3H9C4Mn1,1.042,196.293,0.142
Ni1C4Br3H9,1.653,248.789,0.224
Ni1C4Cl3H9,2.047,231.641,0.175
Ni1C4F3H9,0.004,,
I3Ni1C4H9,1.129,292.210,0.292
H9C4Sn1Br3,0.836,194.406,0.083
H9C4Sn1Cl3,0.966,191.701,0.041
H9C4Sn1F3,1.210,232.922,-0.262
I3H9C4Sn1,0.686,205.294,0.144
Sr1C4Br3H9,2.019,201.924,-0.139
Sr1C4Cl3H9,2.428,202.798,-0.190
Sr1C4F3H9,4.011,280.406,-0.483
I3Sr1C4H9,1.464,212.561,-0.063
H9Zn1C4Br3,1.559,197.190,0.076
H9Zn1C4Cl3,1.951,188.264,0.032
H9Zn1C4F3,2.789,256.283,-0.218
I3H9Zn1C4,1.017,219.206,0.137
Pb1I3C4H9,1.225,219.560,0.127
Pb1H9C4Br3,1.419,191.687,0.066
Pb1H9C4Cl3,1.588,185.369,0.027
Pb1H9C4F3,1.833,234.424,-0.255
H10C3Ba1Br3N1,4.529,163.553,-0.205
H10C3Cl3Ba1N1,5.105,176.765,-0.251
H10C3F3Ba1N1,5.515,264.868,-0.491
I3H10C3Ba1N1,3.941,151.161,-0.133
Be1C3N1Br3H10,4.445,148.956,-0.024
Be1C3N1Cl3H10,5.028,145.593,-0.094
Be1C3N1F3H10,5.827,210.970,-0.445
I3Be1C3N1H10,3.899,159.299,0.065
H10Ca1C3Br3N1,4.109,184.681,-0.155
H10Ca1Cl3C3N1,4.798,191.176,-0.210
H10Ca1F3C3N1,5.521,276.085,-0.491
I3H10Ca1C3N1,3.384,178.292,-0.080
H10C3N1Br3Cd1,3.180,173.509,0.027
H10C3N1Cl3Cd1,3.742,182.466,-0.004
H10C3N1F3Cd1,3.967,268.440,-0.208
I3H10C3N1Cd1,2.610,160.785,0.078
H10C3Co1Br3N1,2.265,131.503,0.086
H10C3Cl3Co1N1,2.615,129.129,0.039
H10C3F3Co1N1,3.137,251.981,-0.206
I3H10C3Co1N1,1.706,159.727,0.150
H10C3Br3Cu1N1,0.366,179.391,0.130
H10C3Cl3Cu1N1,0.509,176.583,0.094
H10C3F3Cu1N1,0.810,306.839,-0.115
I3H10C3Cu1N1,0.002,191.370,0.177
H10C3Fe1Br3N1,3.856,115.956,0.045
H10C3Cl3Fe1N1,4.147,115.741,-0.004
H10C3F3Fe1N1,3.535,254.299,-0.261
I3H10C3Fe1N1,3.032,124.937,0.116
H10Ge1C3Br3N1,3.034,142.523,0.049
H10Ge1Cl3C3N1,3.701,135.531,0.006
H10Ge1F3C3N1,4.439,168.385,-0.292
I3H10Ge1C3N1,2.210,154.139,0.112
H10Mg1Cl3C3N1,4.691,189.701,-0.121
H10Mg1F3C3N1,5.462,288.377,-0.413
I3H10Mg1C3N1,3.239,173.763,0.012
H10C3Mn1Br3N1,3.528,143.938,0.010
H10C3Mn1Cl3N1,3.888,145.172,-0.037
H10C3Mn1F3N1,3.585,272.275,-0.285
I3H10C3Mn1N1,3.077,138.887,0.079
Ni1C3N1Br3H10,2.458,212.572,0.154
Ni1C3N1Cl3H10,3.049,205.564,0.108
Ni1C3N1F3H10,4.358,288.501,-0.133
I3Ni1C3N1H10,1.721,229.761,0.220
H10C3Sn1Br3N1,2.802,149.926,0.022
H10C3Cl3Sn1N1,3.403,149.255,-0.017
H10C3F3Sn1N1,4.075,198.912,-0.292
I3H10C3Sn1N1,2.068,149.990,0.083
Sr1C3N1Br3H10,4.313,173.556,-0.183
Sr1C3N1Cl3H10,4.972,186.567,-0.229
Sr1C3N1F3H10,5.392,280.395,-0.488
I3Sr1C3N1H10,3.744,157.728,-0.112
H10Zn1C3Br3N1,3.811,162.816,0.013
H10Zn1Cl3C3N1,4.486,167.474,-0.029
H10Zn1F3C3N1,4.657,244.894,-0.251
I3H10Zn1C3N1,3.143,161.257,0.074
Pb1I3C3H10N1,2.331,163.013,0.066
Pb1H10C3Br3N1,3.004,160.914,0.007
Pb1H10C3N1Cl3,3.565,164.489,-0.029
Pb1H10C3N1F3,4.577,234.763,-0.275
Cs1Ba1Br3,4.154,60.065,-1.816
Cs1Ba1Cl3,4.762,58.907,-2.010
Cs1Ba1F3,5.322,99.223,-3.023
Cs1I3Ba1,3.620,55.387,-1.516
Cs1Be1Br3,4.430,0.000,-1.175
Cs1Be1Cl3,5.311,0.000,-1.447
Cs1Be1F3,6.633,128.953,-2.769
Cs1Be1I3,3.186,29.139,-0.812
Cs1Ca1Br3,4.534,17.052,-1.782
Cs1Ca1Cl3,5.515,0.000,-2.018
Cs1Ca1F3,7.073,50.510,-3.162
Cs1I3Ca1,3.794,34.902,-1.457
Cs1Br3Cd1,1.026,69.271,-1.020
Cs1Cl3Cd1,1.993,37.459,-1.192
Cs1F3Cd1,3.518,91.245,-2.108
Cs1I3Cd1,0.540,93.651,-0.777
Cs1Co1Br3,2.176,0.000,-0.840
Cs1Co1Cl3,2.492,0.000,-1.024
Cs1Co1F3,,,
Cs1I3Co1,1.538,0.000,-0.589
Cs1Br3Cu1,0.010,111.217,-0.628
Cs1Cu1Cl3,0.127,106.708,-0.763
Cs1Cu1F3,,,
Cs1I3Cu1,0.123,162.022,-0.448
Cs1Fe1Br3,1.944,0.000,-0.933
Cs1Fe1Cl3,,,
Cs1Fe1F3,3.514,108.086,-2.211
Cs1I3Fe1,0.805,0.000,-0.633
Cs1Ge1Br3,,,
Cs1Ge1Cl3,1.846,32.607,-1.066
Cs1Ge1F3,,,
Cs1I3Ge1,1.305,34.247,-0.680
Cs1Mg1Br3,2.735,65.116,-1.409
Cs1Mg1Cl3,4.145,58.222,-1.652
Cs1Mg1F3,6.876,103.714,-2.870
Cs1I3Mg1,1.411,80.354,-1.070
Cs1Mn1Br3,1.836,0.000,-1.132
Cs1Mn1Cl3,2.747,0.000,-1.337
Cs1Mn1F3,3.601,70.813,-2.413
Cs1I3Mn1,0.920,0.000,-0.829
Cs1Ni1Br3,0.982,289.037,-0.452
Cs1Ni1Cl3,2.121,186.813,-0.750
Cs1Ni1F3,,,
Cs1Ni1I3,0.509,297.698,-0.285
Cs1Sn1Br3,1.228,27.842,-1.018
Cs1Sn1Cl3,,,
Cs1Sn1F3,2.132,127.904,-2.128
Cs1I3Sn1,1.101,40.206,-0.789
Cs1Sr1Br3,4.337,19.407,-1.816
Cs1Sr1Cl3,5.125,13.595,-2.034
Cs1Sr1F3,6.294,62.524,-3.104
Cs1Sr1I3,,,
Cs1Zn1Br3,0.821,90.624,-0.979
Cs1Zn1Cl3,1.874,126.392,-1.159
Cs1Zn1F3,3.857,113.030,-2.150
Cs1I3Zn1,0.229,138.138,-0.724
Cs1Pb1Br3,,,
Cs1Pb1Cl3,2.561,31.011,-1.244
Cs1Pb1F3,3.296,66.190,-2.211
Cs1Pb1I3,1.807,63.944,-0.854
K1Ba1Br3,3.878,109.776,-1.734
K1Ba1Cl3,4.457,131.260,-1.933
K1Ba1F3,4.900,182.282,-2.972
I3K1Ba1,3.464,104.275,-1.439
Be1K1Br3,4.063,43.136,-1.094
Be1K1Cl3,5.010,49.367,-1.339
Be1K1F3,7.449,145.121,-2.733
I3Be1K1,3.554,69.794,-0.744
K1Ca1Br3,4.138,67.379,-1.693
K1Ca1Cl3,4.897,60.202,-1.929
K1Ca1F3,6.274,79.434,-3.130
I3K1Ca1,3.597,94.824,-1.358
K1Br3Cd1,1.127,107.610,-0.934
K1Cl3Cd1,2.099,89.826,-1.114
K1F3Cd1,3.339,104.407,-2.094
I3K1Cd1,0.537,144.493,-0.675
K1Co1Br3,1.307,0.000,-0.714
K1Co1Cl3,1.682,0.000,-0.945
K1Co1F3,2.604,19.847,-2.094
I3K1Co1,1.420,57.641,-0.497
K1Br3Cu1,0.162,107.767,-0.586
K1Cu1Cl3,0.172,84.800,-0.751
K1Cu1F3,0.058,115.503,-1.729
I3K1Cu1,0.010,212.601,-0.359
K1Fe1Br3,2.017,0.000,-0.866
K1Fe1Cl3,3.061,0.000,-1.104
K1Fe1F3,3.029,36.694,-2.252
I3K1Fe1,0.862,11.520,-0.543
K1Ge1Br3,1.401,55.154,-0.821
K1Ge1Cl3,1.657,60.245,-0.980
K1Ge1F3,4.290,143.778,-2.072
I3K1Ge1,1.272,84.738,-0.586
K1Mg1Br3,2.902,78.131,-1.338
K1Mg1Cl3,4.416,37.417,-1.609
K1Mg1F3,7.136,56.167,-2.976
I3K1Mg1,1.496,131.899,-0.972
K1Mn1Br3,1.858,0.000,-1.053
K1Mn1Cl3,2.092,490.224,-0.710
K1Mn1F3,2.895,74.821,-2.433
I3K1Mn1,0.947,10.219,-0.728
Ni1K1Br3,0.896,338.910,-0.387
Ni1K1Cl3,1.463,271.618,-0.611
Ni1K1F3,3.333,220.760,-1.779
I3Ni1K1,0.410,355.069,-0.200
K1Sn1Br3,1.337,61.255,-0.923
K1Sn1Cl3,1.722,67.985,-1.075
K1Sn1F3,3.416,134.372,-2.143
I3K1Sn1,1.078,89.914,-0.672
Sr1K1Br3,4.029,74.764,-1.726
Sr1K1Cl3,4.658,75.560,-1.947
Sr1K1F3,5.522,138.260,-3.060
I3Sr1K1,3.533,83.888,-1.409
K1Zn1Br3,1.064,144.698,-0.928
K1Zn1Cl3,1.786,142.329,-1.103
K1Zn1F3,3.953,76.534,-2.222
I3K1Zn1,0.181,178.424,-0.656
Pb1K1Br3,2.230,74.559,-1.000
Pb1K1Cl3,2.694,78.343,-1.158
Pb1K1F3,3.752,129.110,-2.140
Pb1I3K1,1.790,134.492,-0.735
Ba1Br3Li1,3.800,196.668,-1.567
Cl3Ba1Li1,4.355,223.973,-1.781
F3Ba1Li1,5.825,238.881,-3.005
I3Ba1Li1,3.069,211.006,-1.227
Be1Br3Li1,4.668,41.429,-1.017
Be1Cl3Li1,5.866,54.130,-1.275
Be1F3Li1,7.746,60.188,-2.844
I3Be1Li1,3.540,45.156,-0.663
Ca1Br3Li1,3.720,158.961,-1.501
Ca1Cl3Li1,4.525,162.438,-1.747
Ca1F3Li1,5.966,218.517,-3.065
I3Ca1Li1,3.119,183.025,-1.164
Cd1Br3Li1,1.870,168.455,-0.793
Cl3Cd1Li1,2.637,162.793,-0.964
F3Cd1Li1,3.285,284.042,-1.953
I3Cd1Li1,1.195,167.284,-0.547
Co1Br3Li1,2.164,0.000,-0.696
Cl3Co1Li1,1.530,26.704,-0.765
F3Co1Li1,2.597,187.203,-1.982
I3Co1Li1,1.481,32.473,-0.417
Br3Cu1Li1,0.016,209.130,-0.405
Cl3Cu1Li1,0.118,186.216,-0.578
F3Cu1Li1,0.011,207.631,-1.617
I3Cu1Li1,0.027,280.603,-0.186
Fe1Br3Li1,1.936,0.000,-0.694
Cl3Fe1Li1,2.450,372.998,-0.526
F3Fe1Li1,4.034,611.817,-1.766
I3Fe1Li1,2.458,0.000,-0.508
Ge1Br3Li1,1.813,111.196,-0.663
Ge1Cl3Li1,2.068,109.516,-0.825
Ge1F3Li1,3.640,238.559,-1.957
I3Ge1Li1,1.545,133.676,-0.432
Mg1Br3Li1,2.554,185.427,-1.151
Mg1Cl3Li1,4.094,160.968,-1.430
Mg1Cl3Li1,6.182,0.000,-2.894
I3Mg1Li1,1.879,188.353,-0.810
Mn1Br3Li1,2.511,37.659,-0.880
Cl3Mn1Li1,2.573,19.354,-1.107
F3Mn1Li1,2.399,802.302,-1.726
I3Mn1Li1,0.752,85.650,-0.547
Ni1Br3Li1,1.349,320.186,-0.326
Ni1Cl3Li1,1.814,270.039,-0.548
Ni1F3Li1,3.098,357.130,-1.664
I3Ni1Li1,1.258,312.404,-0.137
Sn1Br3Li1,1.553,165.512,-0.731
Cl3Sn1Li1,2.026,163.688,-0.903
F3Sn1Li1,3.492,281.427,-2.007
I3Sn1Li1,1.262,154.186,-0.502
Sr1Br3Li1,3.729,178.555,-1.543
Sr1Cl3Li1,4.256,209.522,-1.754
Sr1F3Li1,5.680,254.128,-3.034
I3Sr1Li1,3.254,167.405,-1.220
Zn1Br3Li1,1.812,199.917,-0.775
Zn1Cl3Li1,2.743,174.480,-0.982
Zn1F3Li1,4.334,205.547,-2.101
I3Zn1Li1,2.894,67.464,-0.662
Pb1Br3Li1,2.621,187.146,-0.802
Pb1Cl3Li1,2.542,181.653,-0.983
Pb1F3Li1,4.233,106.072,-2.253
Pb1I3Li1,2.117,194.113,-0.570
Na1Ba1Br3,3.333,170.778,-1.599
Na1Ba1Cl3,3.916,206.445,-1.798
Na1Ba1F3,4.255,305.678,-2.849
I3Na1Ba1,2.776,151.182,-1.304
Na1Br3Be1,4.497,50.432,-1.013
Na1Cl3Be1,5.443,30.173,-1.299
Na1F3Be1,6.186,193.077,-2.646
I3Na1Be1,3.446,65.686,-0.659
Na1Ca1Br3,3.708,101.042,-1.564
Na1Ca1Cl3,4.469,99.857,-1.809
Na1Ca1F3,5.353,186.240,-3.008
I3Na1Ca1,3.149,133.696,-1.230
Na1Br3Cd1,2.792,71.522,-0.896
Na1Cl3Cd1,1.973,140.426,-0.988
Na1F3Cd1,3.195,167.723,-1.990
I3Na1Cd1,2.450,65.370,-0.666
Na1Co1Br3,1.502,0.260,-0.606
Na1Co1Cl3,1.873,0.000,-0.811
Na1Co1F3,1.440,303.938,-1.800
I3Na1Co1,1.579,31.879,-0.434
Na1Br3Cu1,0.163,183.906,-0.436
Na1Cu1Cl3,0.169,155.815,-0.608
Na1Cu1F3,0.012,146.498,-1.633
I3Na1Cu1,0.013,279.535,-0.204
Na1Fe1Br3,1.896,0.000,-0.723
Na1Fe1Cl3,3.049,0.000,-0.962
Na1Fe1F3,2.363,154.138,-2.150
I3Na1Fe1,1.376,27.145,-0.439
Na1Ge1Br3,1.807,74.005,-0.706
Na1Ge1Cl3,2.211,59.112,-0.875
Na1Ge1F3,4.379,86.655,-2.086
I3Na1Ge1,1.153,180.843,-0.401
Na1Mg1Br3,2.681,144.472,-1.197
Na1Mg1Cl3,4.314,120.463,-1.465
Na1Mg1F3,6.126,87.058,-2.897
I3Na1Mg1,1.212,173.509,-0.842
Na1Mn1Br3,1.839,5.567,-0.918
Na1Mn1Cl3,2.679,0.000,-1.154
Na1Mn1F3,2.062,708.897,-1.746
I3Na1Mn1,0.794,49.814,-0.600
Na1Br3Ni1,1.409,273.479,-0.378
Na1Cl3Ni1,2.202,214.034,-0.603
Na1F3Ni1,4.478,132.671,-1.825
I3Na1Ni1,0.644,390.739,-0.075
Na1Sn1Br3,1.558,102.029,-0.800
Na1Sn1Cl3,1.952,116.535,-0.957
Na1Sn1F3,3.648,188.069,-2.046
I3Na1Sn1,1.276,101.605,-0.571
Na1Br3Sr1,3.524,126.542,-1.600
Na1Cl3Sr1,4.192,138.391,-1.824
Na1F3Sr1,4.806,245.745,-2.953
I3Na1Sr1,2.997,122.274,-1.282
Na1Zn1Br3,1.417,180.972,-0.810
Na1Zn1Cl3,2.486,159.687,-1.014
Na1Zn1F3,3.654,125.320,-2.124
I3Na1Zn1,2.859,71.502,-0.675
Pb1Na1Br3,2.358,117.051,-0.877
Pb1Na1Cl3,2.758,127.567,-1.036
Pb1Na1F3,3.691,234.352,-2.036
Pb1Na1I3,2.087,142.568,-0.639
Br3Ba1Rb1,3.962,77.681,-1.766
Ba1Rb1Cl3,4.522,96.690,-1.963
Ba1Rb1F3,4.931,143.117,-2.987
I3Ba1Rb1,3.490,82.847,-1.468
Be1Br3Rb1,4.179,7.096,-1.131
Be1Rb1Cl3,5.112,0.000,-1.406
Be1Rb1F3,6.522,130.211,-2.751
I3Be1Rb1,3.132,57.211,-0.763
Ca1Br3Rb1,4.241,39.383,-1.731
Ca1Rb1Cl3,5.108,25.936,-1.971
Ca1Rb1F3,6.542,51.320,-3.152
I3Ca1Rb1,3.591,65.725,-1.394
Br3Rb1Cd1,1.065,83.744,-0.974
Cl3Rb1Cd1,2.057,60.426,-1.151
F3Rb1Cd1,3.409,74.765,-2.116
I3Rb1Cd1,0.538,106.912,-0.720
Co1Br3Rb1,1.395,0.000,-0.745
Co1Rb1Cl3,1.758,0.000,-0.963
Co1Rb1F3,2.608,53.407,-2.073
I3Co1Rb1,1.468,28.051,-0.533
Br3Cu1Rb1,0.140,86.970,-0.608
Cu1Rb1Cl3,0.165,93.397,-0.757
Cu1Rb1F3,0.023,118.746,-1.701
I3Cu1Rb1,0.007,179.882,-0.399
Br3Fe1Rb1,1.988,0.000,-0.898
Fe1Rb1Cl3,3.015,0.000,-1.128
Fe1Rb1F3,4.103,404.725,-1.860
I3Fe1Rb1,0.816,0.000,-0.583
Ge1Br3Rb1,1.393,41.999,-0.861
Ge1Rb1Cl3,1.747,53.117,-1.019
Ge1Rb1F3,4.010,121.611,-2.101
I3Ge1Rb1,1.241,50.134,-0.628
Mg1Br3Rb1,2.850,45.369,-1.371
Mg1Rb1Cl3,4.312,36.130,-1.633
Mg1Rb1F3,7.134,55.567,-2.941
I3Mg1Rb1,1.429,91.211,-1.020
Mn1Br3Rb1,1.869,0.000,-1.091
Mn1Rb1Cl3,2.768,0.000,-1.319
Mn1Rb1F3,2.964,657.702,-1.844
I3Mn1Rb1,0.923,0.000,-0.776
Ni1Br3Rb1,0.842,314.245,-0.412
Ni1Rb1Cl3,2.141,162.085,-0.743
Ni1Rb1F3,4.420,93.369,-1.883