Material composition,GGA Band gap (eV),Stability (meV/atom),Formation energy (eV/atom)
C7Br24H35N14Sn8Rb1,1.633,66.913,-0.171
C7Cl24H35N14Sn8Rb1,2.267,63.272,-0.238
C7I24H35N14Sn8Rb1,1.222,63.712,-0.076
C6Br24H30N12Rb2Cu8,0.000,93.008,-0.068
C6Cl24H30N12Rb2Cu8,0.005,91.412,-0.132
C6I24H30N12Rb2Cu8,0.004,121.437,0.029
C6Br24H30N12Fe8Rb2,3.011,0.000,-0.202
C6Cl24H30N12Fe8Rb2,3.527,0.000,-0.301
C6I24H30N12Fe8Rb2,2.566,0.000,-0.086
C6Br24H30N12Ge8Rb2,2.101,69.701,-0.166
C6Cl24H30N12Ge8Rb2,2.728,62.518,-0.242
C6I24H30N12Ge8Rb2,1.605,76.859,-0.061
C6Br24H30Mn8N12Rb2,2.200,31.306,-0.269
C6Cl24H30Mn8N12Rb2,2.961,11.876,-0.375
C6I24H30Mn8N12Rb2,1.287,32.780,-0.138
C6Br24H30N12Sn8Rb2,1.435,66.458,-0.226
C6Cl24H30N12Sn8Rb2,2.254,58.337,-0.303
C6I24H30N12Sn8Rb2,1.315,58.937,-0.126
C4Br24H20N8Rb4Cu8,0.001,94.548,-0.171
C4Cl24H20N8Rb4Cu8,0.365,88.771,-0.258
C4I24H20N8Rb4Cu8,0.001,100.541,-0.087
C4Br24H20N8Fe8Rb4,2.863,0.000,-0.337
C4Cl24H20N8Fe8Rb4,3.571,0.000,-0.464
C4I24H20N8Fe8Rb4,2.539,0.000,-0.209
C4Br24H20N8Ge8Rb4,2.074,65.604,-0.301
C4Cl24H20N8Ge8Rb4,2.693,60.933,-0.394
C4I24H20N8Ge8Rb4,1.526,72.535,-0.171
C4Br24H20Mn8N8Rb4,2.148,9.983,-0.431
C4Cl24H20Mn8N8Rb4,2.949,0.000,-0.548
C4I24H20Mn8N8Rb4,1.229,15.557,-0.268
C4Br24H20N8Sn8Rb4,1.441,56.187,-0.378
C4Cl24H20N8Sn8Rb4,2.279,47.167,-0.472
C4I24H20N8Sn8Rb4,1.123,55.199,-0.250